19
	Energy: -403566.6806025
C          1.62844       -0.28749        0.00000
H          1.21073       -1.29417        0.00000
H          2.71273       -0.24347        0.00000
C         -1.30830        0.32219        3.74127
H         -1.69101       -0.64196        3.40327
H         -0.90483        0.25048        4.75242
H         -2.07931        1.09188        3.69209
O         -0.20499        0.75255        2.85004
O          1.19352        0.43158        1.18512
O          1.19352        0.43158       -1.18512
C         -1.30830        0.32219       -3.74127
H         -1.69101       -0.64196       -3.40327
H         -2.07931        1.09188       -3.69209
H         -0.90483        0.25048       -4.75242
O         -0.20499        0.75255       -2.85004
C          0.13202       -0.12604        1.87153
O         -0.37781       -1.21488        1.64361
C          0.13202       -0.12604       -1.87153
O         -0.37781       -1.21488       -1.64361
