21
	Energy: -378739.7637183
C         -3.89144       -1.26774        0.35713
H         -3.77114       -2.19984        0.91300
H         -4.12627       -0.44161        1.03103
H         -4.66639       -1.37938       -0.40419
C          0.01275        1.46882       -0.47121
H         -0.52139        2.24243        0.07387
H          0.43824        1.82757       -1.40806
O         -2.61802       -0.98075       -0.32694
O          1.13532        1.09970        0.42986
N         -0.88535        0.38368       -0.73019
H         -0.53862       -0.37878       -1.30429
C         -2.03062        0.22999        0.00580
O         -2.48338        1.04098        0.81565
C          1.96445        0.12463       -0.11779
O          1.76067       -0.40863       -1.21924
N          2.99067       -0.13789        0.72866
H          3.03389        0.37914        1.59890
C          3.99938       -1.14930        0.39680
H          4.01162       -1.95630        1.13757
H          3.71968       -1.55577       -0.57703
H          4.99939       -0.70687        0.33099
