26
	Energy: -313293.4067397
C          3.79350       -0.66113        0.47070
H          3.98668       -1.37151       -0.33968
H          3.70399       -1.20658        1.41657
H          4.65131        0.01877        0.54684
C          2.50840        0.11833        0.16506
H          2.28882        0.84888        0.95266
C          1.27967       -0.78638        0.03934
H          1.16071       -1.37526        0.95611
H          1.42411       -1.46073       -0.81292
C          0.01992        0.05661       -0.16477
H          0.19163        0.70004       -1.03362
C         -1.25428       -0.80787       -0.40336
H         -1.12718       -1.80916        0.02714
H         -1.42977       -0.90990       -1.48024
C         -2.48212       -0.17150        0.26278
H         -2.36354       -0.26059        1.34871
C         -3.80093       -0.79694       -0.19602
H         -3.81235       -1.87092        0.01729
H         -4.65527       -0.33986        0.31985
H         -3.91891       -0.64658       -1.27360
O          2.61291        0.77545       -1.15042
H          3.25802        1.52683       -1.05519
O         -0.11703        0.86660        1.05109
H         -0.88160        1.47639        0.82220
O         -2.44420        1.26823       -0.11208
H         -3.27510        1.69116        0.23665
